;
;   File topol.top  was generated
;   By user: siyoungkim (501)
;   On host:pal-10-184-74-204.itap.purdue.edu 
;   At date:Mon. September  1 15:46:11 2026 
;
;   This is a standalone topology file
;
;   Created by:
;   ParmEd:       -, VERSION4.3.1 
;   Executable:   -
;   Library dir:  /Users/siyoungkim/software/gromacs-2024.6/share/gromacs/top
;   Command line:
;     -
;

[ defaults ]
; nbfunc        comb-rule       gen-pairs       fudgeLJ fudgeQQ
1               2               yes             0.5          0.83333333  

[ atomtypes ]
; name    at.num    mass    charge ptype  sigma      epsilon
N3             7  14.010000  0.00000000  A     0.32499985        0.71128
H              1   1.008000  0.00000000  A     0.10690785      0.0656888
CX             6  12.010000  0.00000000  A     0.33996695      0.4577296
HP             1   1.008000  0.00000000  A     0.19599772      0.0656888
CT             6  12.010000  0.00000000  A     0.33996695      0.4577296
HC             1   1.008000  0.00000000  A     0.26495328      0.0656888
H1             1   1.008000  0.00000000  A      0.2471353      0.0656888
N2             7  14.010000  0.00000000  A     0.32499985        0.71128
CA             6  12.010000  0.00000000  A     0.33996695       0.359824
C              6  12.010000  0.00000000  A     0.33996695       0.359824
O              8  16.000000  0.00000000  A     0.29599219        0.87864
N              7  14.010000  0.00000000  A     0.32499985        0.71128
O2             8  16.000000  0.00000000  A     0.29599219        0.87864
OW             8  16.000000  0.00000000  A     0.31507524       0.635968
HW             1   1.008000  0.00000000  A              0              0


[ moleculetype ]
; Name            nrexcl
system1          3

[ atoms ]
;   nr       type  resnr residue  atom   cgnr    charge       mass  typeB    chargeB      massB
; residue    1 ARG rtp ARG q 2.0
    1         N3      1    ARG      N      1 0.13050000  14.010000   ; qtot 0.130500
    2          H      1    ARG     H1      2 0.20830000   1.008000   ; qtot 0.338800
    3          H      1    ARG     H2      3 0.20830000   1.008000   ; qtot 0.547100
    4          H      1    ARG     H3      4 0.20830000   1.008000   ; qtot 0.755400
    5         CX      1    ARG     CA      5 -0.02230000  12.010000   ; qtot 0.733100
    6         HP      1    ARG     HA      6 0.12420000   1.008000   ; qtot 0.857300
    7         CT      1    ARG     CB      7 0.01180000  12.010000   ; qtot 0.869100
    8         HC      1    ARG    HB2      8 0.02260000   1.008000   ; qtot 0.891700
    9         HC      1    ARG    HB3      9 0.02260000   1.008000   ; qtot 0.914300
   10         CT      1    ARG     CG     10 0.02360000  12.010000   ; qtot 0.937900
   11         HC      1    ARG    HG2     11 0.03090000   1.008000   ; qtot 0.968800
   12         HC      1    ARG    HG3     12 0.03090000   1.008000   ; qtot 0.999700
   13         CT      1    ARG     CD     13 0.09350000  12.010000   ; qtot 1.093200
   14         H1      1    ARG    HD2     14 0.05270000   1.008000   ; qtot 1.145900
   15         H1      1    ARG    HD3     15 0.05270000   1.008000   ; qtot 1.198600
   16         N2      1    ARG     NE     16 -0.56500000  14.010000   ; qtot 0.633600
   17          H      1    ARG     HE     17 0.35920000   1.008000   ; qtot 0.992800
   18         CA      1    ARG     CZ     18 0.82810000  12.010000   ; qtot 1.820900
   19         N2      1    ARG    NH1     19 -0.86930000  14.010000   ; qtot 0.951600
   20          H      1    ARG   HH11     20 0.44940000   1.008000   ; qtot 1.401000
   21          H      1    ARG   HH12     21 0.44940000   1.008000   ; qtot 1.850400
   22         N2      1    ARG    NH2     22 -0.86930000  14.010000   ; qtot 0.981100
   23          H      1    ARG   HH21     23 0.44940000   1.008000   ; qtot 1.430500
   24          H      1    ARG   HH22     24 0.44940000   1.008000   ; qtot 1.879900
   25          C      1    ARG      C     25 0.72140000  12.010000   ; qtot 2.601300
   26          O      1    ARG      O     26 -0.60130000  16.000000   ; qtot 2.000000
; residue    2 PRO rtp PRO q 0.0
   27          N      2    PRO      N     27 -0.25480000  14.010000   ; qtot 1.745200
   28         CT      2    PRO     CD     28 0.01920000  12.010000   ; qtot 1.764400
   29         H1      2    PRO    HD2     29 0.03910000   1.008000   ; qtot 1.803500
   30         H1      2    PRO    HD3     30 0.03910000   1.008000   ; qtot 1.842600
   31         CT      2    PRO     CG     31 0.01890000  12.010000   ; qtot 1.861500
   32         HC      2    PRO    HG2     32 0.02130000   1.008000   ; qtot 1.882800
   33         HC      2    PRO    HG3     33 0.02130000   1.008000   ; qtot 1.904100
   34         CT      2    PRO     CB     34 -0.00700000  12.010000   ; qtot 1.897100
   35         HC      2    PRO    HB2     35 0.02530000   1.008000   ; qtot 1.922400
   36         HC      2    PRO    HB3     36 0.02530000   1.008000   ; qtot 1.947700
   37         CX      2    PRO     CA     37 -0.02660000  12.010000   ; qtot 1.921100
   38         H1      2    PRO     HA     38 0.06410000   1.008000   ; qtot 1.985200
   39          C      2    PRO      C     39 0.58960000  12.010000   ; qtot 2.574800
   40          O      2    PRO      O     40 -0.57480000  16.000000   ; qtot 2.000000
; residue    3 ASP rtp ASP q -2.0
   41          N      3    ASP      N     41 -0.51920000  14.010000   ; qtot 1.480800
   42          H      3    ASP      H     42 0.30550000   1.008000   ; qtot 1.786300
   43         CX      3    ASP     CA     43 -0.18170000  12.010000   ; qtot 1.604600
   44         H1      3    ASP     HA     44 0.10460000   1.008000   ; qtot 1.709200
   45         CT      3    ASP     CB     45 -0.06770000  12.010000   ; qtot 1.641500
   46         HC      3    ASP    HB2     46 -0.02120000   1.008000   ; qtot 1.620300
   47         HC      3    ASP    HB3     47 -0.02120000   1.008000   ; qtot 1.599100
   48          C      3    ASP     CG     48 0.88510000  12.010000   ; qtot 2.484200
   49         O2      3    ASP    OD1     49 -0.81620000  16.000000   ; qtot 1.668000
   50         O2      3    ASP    OD2     50 -0.81620000  16.000000   ; qtot 0.851800
   51          C      3    ASP      C     51 0.72560000  12.010000   ; qtot 1.577400
   52         O2      3    ASP      O     52 -0.78870000  16.000000   ; qtot 0.788700
   53         O2      3    ASP    OXT     53 -0.78870000  16.000000   ; qtot -0.000000

[ bonds ]
;    ai     aj funct         c0         c1         c2         c3
     25     26     1   0.12290 476976.000000
     25     27     1   0.13350 410032.000000
     18     19     1   0.13400 402500.800000
     18     22     1   0.13400 402500.800000
     16     18     1   0.13400 402500.800000
     13     16     1   0.14630 282001.600000
     10     13     1   0.15260 259408.000000
      7     10     1   0.15260 259408.000000
      5      7     1   0.15260 259408.000000
      5     25     1   0.15220 265265.600000
      1      5     1   0.14710 307105.600000
     39     40     1   0.12290 476976.000000
     39     41     1   0.13350 410032.000000
     37     39     1   0.15220 265265.600000
     34     37     1   0.15260 259408.000000
     31     34     1   0.15260 259408.000000
     28     31     1   0.15260 259408.000000
     27     28     1   0.14490 282001.600000
     27     37     1   0.14490 282001.600000
     51     52     1   0.12500 548940.800000
     51     53     1   0.12500 548940.800000
     48     49     1   0.12500 548940.800000
     48     50     1   0.12500 548940.800000
     45     48     1   0.15220 265265.600000
     43     45     1   0.15260 259408.000000
     43     51     1   0.15220 265265.600000
     41     43     1   0.14490 282001.600000
     22     23     1   0.10100 363171.200000
     22     24     1   0.10100 363171.200000
     19     20     1   0.10100 363171.200000
     19     21     1   0.10100 363171.200000
     16     17     1   0.10100 363171.200000
     13     14     1   0.10900 284512.000000
     13     15     1   0.10900 284512.000000
     10     11     1   0.10900 284512.000000
     10     12     1   0.10900 284512.000000
      7      8     1   0.10900 284512.000000
      7      9     1   0.10900 284512.000000
      5      6     1   0.10900 284512.000000
      1      2     1   0.10100 363171.200000
      1      3     1   0.10100 363171.200000
      1      4     1   0.10100 363171.200000
     37     38     1   0.10900 284512.000000
     34     35     1   0.10900 284512.000000
     34     36     1   0.10900 284512.000000
     31     32     1   0.10900 284512.000000
     31     33     1   0.10900 284512.000000
     28     29     1   0.10900 284512.000000
     28     30     1   0.10900 284512.000000
     45     46     1   0.10900 284512.000000
     45     47     1   0.10900 284512.000000
     43     44     1   0.10900 284512.000000
     41     42     1   0.10100 363171.200000

[ pairs ]
;    ai     aj funct         c0         c1         c2         c3
     26     28     1
     26     37     1
     25     31     1
     25     34     1
     25     39     1
     13     19     1
     13     22     1
     10     25     1
     10     18     1
      7     26     1
      7     27     1
      7     16     1
      5     13     1
      5     28     1
      5     37     1
      1     10     1
      1     26     1
      1     27     1
     40     43     1
     39     45     1
     39     51     1
     37     43     1
     34     40     1
     34     41     1
     31     39     1
     28     39     1
     27     40     1
     27     41     1
     48     51     1
     45     52     1
     45     53     1
     43     49     1
     43     50     1
     41     48     1
     41     52     1
     41     53     1
     25     29     1
     25     30     1
     25     38     1
     21     22     1
     20     22     1
     19     23     1
     19     24     1
     17     19     1
     17     22     1
     16     20     1
     16     21     1
     16     23     1
     16     24     1
     15     17     1
     15     18     1
     14     17     1
     14     18     1
     12     14     1
     12     15     1
     12     16     1
     11     14     1
     11     15     1
     11     16     1
     10     17     1
      9     25     1
      9     11     1
      9     12     1
      9     13     1
      8     25     1
      8     11     1
      8     12     1
      8     13     1
      7     14     1
      7     15     1
      6      8     1
      6      9     1
      6     10     1
      6     26     1
      6     27     1
      5     11     1
      5     12     1
      4      6     1
      4      7     1
      4     25     1
      3      6     1
      3      7     1
      3     25     1
      2      6     1
      2      7     1
      2     25     1
      1      8     1
      1      9     1
     40     42     1
     39     44     1
     38     40     1
     38     41     1
     37     42     1
     36     38     1
     36     39     1
     35     38     1
     35     39     1
     33     35     1
     33     36     1
     33     37     1
     32     35     1
     32     36     1
     32     37     1
     31     38     1
     30     37     1
     30     32     1
     30     33     1
     30     34     1
     29     37     1
     29     32     1
     29     33     1
     29     34     1
     28     38     1
     28     35     1
     28     36     1
     27     32     1
     27     33     1
     27     35     1
     27     36     1
     47     51     1
     47     49     1
     47     50     1
     46     51     1
     46     49     1
     46     50     1
     44     46     1
     44     47     1
     44     48     1
     44     52     1
     44     53     1
     42     44     1
     42     45     1
     42     51     1
     41     46     1
     41     47     1

[ angles ]
;    ai     aj     ak funct         c0         c1         c2         c3
     26     25     27     1   122.9000527 669.440000
     25     27     28     1   121.9000522 418.400000
     25     27     37     1   121.9000522 418.400000
     19     18     22     1   120.0000514 585.760000
     16     18     19     1   120.0000514 585.760000
     16     18     22     1   120.0000514 585.760000
     13     16     18     1   123.2000528 418.400000
     10     13     16     1   111.2000477 669.440000
      7      5     25     1   111.1000476 527.184000
      7     10     13     1   109.5000469 334.720000
      5      7     10     1   109.5000469 334.720000
      5     25     26     1   120.4000516 669.440000
      5     25     27     1   116.6000500 585.760000
      1      5      7     1   111.2000477 669.440000
      1      5     25     1   111.2000477 669.440000
     40     39     41     1   122.9000527 669.440000
     39     41     43     1   121.9000522 418.400000
     37     39     40     1   120.4000516 669.440000
     37     39     41     1   116.6000500 585.760000
     34     37     39     1   111.1000476 527.184000
     31     34     37     1   109.5000469 334.720000
     28     27     37     1   118.0000506 418.400000
     28     31     34     1   109.5000469 334.720000
     27     28     31     1   109.7000470 669.440000
     27     37     34     1   109.7000470 669.440000
     27     37     39     1   110.1000472 527.184000
     52     51     53     1   126.0000540 669.440000
     49     48     50     1   126.0000540 669.440000
     45     43     51     1   111.1000476 527.184000
     45     48     49     1   117.0000501 585.760000
     45     48     50     1   117.0000501 585.760000
     43     45     48     1   111.1000476 527.184000
     43     51     52     1   117.0000501 585.760000
     43     51     53     1   117.0000501 585.760000
     41     43     45     1   109.7000470 669.440000
     41     43     51     1   110.1000472 527.184000
     23     22     24     1   120.0000514 292.880000
     20     19     21     1   120.0000514 292.880000
     18     19     20     1   120.0000514 418.400000
     18     19     21     1   120.0000514 418.400000
     18     22     23     1   120.0000514 418.400000
     18     22     24     1   120.0000514 418.400000
     17     16     18     1   120.0000514 418.400000
     15     13     16     1   109.5000469 418.400000
     14     13     15     1   109.5000469 292.880000
     14     13     16     1   109.5000469 418.400000
     13     16     17     1   118.4000507 418.400000
     12     10     13     1   109.5000469 418.400000
     11     10     12     1   109.5000469 292.880000
     11     10     13     1   109.5000469 418.400000
     10     13     14     1   109.5000469 418.400000
     10     13     15     1   109.5000469 418.400000
      9      7     10     1   109.5000469 418.400000
      8      7      9     1   109.5000469 292.880000
      8      7     10     1   109.5000469 418.400000
      7     10     11     1   109.5000469 418.400000
      7     10     12     1   109.5000469 418.400000
      6      5      7     1   109.5000469 418.400000
      6      5     25     1   109.5000469 418.400000
      5      7      8     1   109.5000469 418.400000
      5      7      9     1   109.5000469 418.400000
      4      1      5     1   109.5000469 418.400000
      3      1      4     1   109.5000469 292.880000
      3      1      5     1   109.5000469 418.400000
      2      1      3     1   109.5000469 292.880000
      2      1      4     1   109.5000469 292.880000
      2      1      5     1   109.5000469 418.400000
      1      5      6     1   109.5000469 418.400000
     39     41     42     1   120.0000514 418.400000
     38     37     39     1   109.5000469 418.400000
     36     34     37     1   109.5000469 418.400000
     35     34     36     1   109.5000469 292.880000
     35     34     37     1   109.5000469 418.400000
     34     37     38     1   109.5000469 418.400000
     33     31     34     1   109.5000469 418.400000
     32     31     33     1   109.5000469 292.880000
     32     31     34     1   109.5000469 418.400000
     31     34     35     1   109.5000469 418.400000
     31     34     36     1   109.5000469 418.400000
     30     28     31     1   109.5000469 418.400000
     29     28     30     1   109.5000469 292.880000
     29     28     31     1   109.5000469 418.400000
     28     31     32     1   109.5000469 418.400000
     28     31     33     1   109.5000469 418.400000
     27     28     29     1   109.5000469 418.400000
     27     28     30     1   109.5000469 418.400000
     27     37     38     1   109.5000469 418.400000
     47     45     48     1   109.5000469 418.400000
     46     45     47     1   109.5000469 292.880000
     46     45     48     1   109.5000469 418.400000
     44     43     45     1   109.5000469 418.400000
     44     43     51     1   109.5000469 418.400000
     43     45     46     1   109.5000469 418.400000
     43     45     47     1   109.5000469 418.400000
     42     41     43     1   118.0400505 418.400000
     41     43     44     1   109.5000469 418.400000

[ dihedrals ]
;    ai     aj     ak     al funct         c0         c1         c2         c3         c4         c5
     26     25     27     28     1  180.0000771  10.4600000  2
     26     25     27     37     1  180.0000771  10.4600000  2
     25     27     28     31     1  0.0000000  8.3680000  1
     25     27     28     31     1  0.0000000  8.3680000  2
     25     27     28     31     1  0.0000000  1.6736000  3
     25     27     28     31     1  0.0000000  0.0000000  4
     25     27     37     34     1  0.0000000  8.3680000  1
     25     27     37     34     1  0.0000000  8.3680000  2
     25     27     37     34     1  0.0000000  1.6736000  3
     25     27     37     34     1  0.0000000  0.0000000  4
     25     27     37     39     1  0.0000000  0.0000000  1
     25     27     37     39     1  0.0000000  1.1296800  2
     25     27     37     39     1  0.0000000  1.7572800  3
     25     27     37     39     1  0.0000000  0.0000000  4
     13     16     18     19     1  180.0000771  10.0416000  2
     13     16     18     22     1  180.0000771  10.0416000  2
     10      7      5     25     1  0.0000000  0.6508444  3
     10     13     16     18     1  0.0000000  0.0000000  3
      7      5     25     26     1  0.0000000  0.0000000  2
      7      5     25     27     1  0.0000000  0.8368000  1
      7      5     25     27     1  0.0000000  0.8368000  2
      7      5     25     27     1  0.0000000  1.6736000  3
      7      5     25     27     1  0.0000000  0.0000000  4
      7     10     13     16     1  0.0000000  0.6508444  3
      5      7     10     13     1  180.0000771  0.8368000  1
      5      7     10     13     1  180.0000771  1.0460000  2
      5      7     10     13     1  0.0000000  0.7531200  3
      5     25     27     28     1  180.0000771  10.4600000  2
      5     25     27     37     1  180.0000771  10.4600000  2
      1      5      7     10     1  0.0000000  0.6508444  3
      1      5     25     26     1  0.0000000  0.0000000  2
      1      5     25     27     1  0.0000000  0.0000000  2
     40     39     41     43     1  180.0000771  10.4600000  2
     39     41     43     45     1  0.0000000  8.3680000  1
     39     41     43     45     1  0.0000000  8.3680000  2
     39     41     43     45     1  0.0000000  1.6736000  3
     39     41     43     45     1  0.0000000  0.0000000  4
     39     41     43     51     1  0.0000000  0.0000000  1
     39     41     43     51     1  0.0000000  1.1296800  2
     39     41     43     51     1  0.0000000  1.7572800  3
     39     41     43     51     1  0.0000000  0.0000000  4
     37     39     41     43     1  180.0000771  10.4600000  2
     34     37     39     40     1  0.0000000  0.0000000  2
     34     37     39     41     1  0.0000000  0.8368000  1
     34     37     39     41     1  0.0000000  0.8368000  2
     34     37     39     41     1  0.0000000  1.6736000  3
     34     37     39     41     1  0.0000000  0.0000000  4
     31     28     27     37     1  0.0000000  0.0000000  2
     31     34     37     39     1  0.0000000  0.6508444  3
     28     27     37     34     1  0.0000000  0.0000000  2
     28     27     37     39     1  0.0000000  0.0000000  2
     28     31     34     37     1  180.0000771  0.8368000  1
     28     31     34     37     1  180.0000771  1.0460000  2
     28     31     34     37     1  0.0000000  0.7531200  3
     27     28     31     34     1  0.0000000  0.6508444  3
     27     37     34     31     1  0.0000000  0.6508444  3
     27     37     39     40     1  0.0000000  0.0000000  2
     27     37     39     41     1  180.0000771  1.8828000  1
     27     37     39     41     1  180.0000771  6.6107200  2
     27     37     39     41     1  180.0000771  2.3012000  3
     27     37     39     41     1  0.0000000  0.0000000  4
     48     45     43     51     1  0.0000000  0.6508444  3
     45     43     51     52     1  0.0000000  0.0000000  2
     45     43     51     53     1  0.0000000  0.0000000  2
     43     45     48     49     1  0.0000000  0.0000000  2
     43     45     48     50     1  0.0000000  0.0000000  2
     41     43     45     48     1  0.0000000  0.6508444  3
     41     43     51     52     1  0.0000000  0.0000000  2
     41     43     51     53     1  0.0000000  0.0000000  2
      5     27     25     26     4  180.0000771  43.9320000  2
     16     19     18     22     4  180.0000771  43.9320000  2
     37     41     39     40     4  180.0000771  43.9320000  2
     25     28     27     37     4  180.0000771  4.1840000  2
     43     52     51     53     4  180.0000771  43.9320000  2
     45     49     48     50     4  180.0000771  43.9320000  2
     25     27     28     29     1  0.0000000  0.0000000  2
     25     27     28     30     1  0.0000000  0.0000000  2
     25     27     37     38     1  0.0000000  0.0000000  2
     21     19     18     22     1  180.0000771  10.0416000  2
     20     19     18     22     1  180.0000771  10.0416000  2
     19     18     22     23     1  180.0000771  10.0416000  2
     19     18     22     24     1  180.0000771  10.0416000  2
     17     16     18     19     1  180.0000771  10.0416000  2
     17     16     18     22     1  180.0000771  10.0416000  2
     16     18     19     20     1  180.0000771  10.0416000  2
     16     18     19     21     1  180.0000771  10.0416000  2
     16     18     22     23     1  180.0000771  10.0416000  2
     16     18     22     24     1  180.0000771  10.0416000  2
     15     13     16     17     1  0.0000000  0.0000000  3
     15     13     16     18     1  0.0000000  0.0000000  3
     14     13     16     17     1  0.0000000  0.0000000  3
     14     13     16     18     1  0.0000000  0.0000000  3
     12     10     13     14     1  0.0000000  0.6508444  3
     12     10     13     15     1  0.0000000  0.6508444  3
     12     10     13     16     1  0.0000000  0.6508444  3
     11     10     13     14     1  0.0000000  0.6508444  3
     11     10     13     15     1  0.0000000  0.6508444  3
     11     10     13     16     1  0.0000000  0.6508444  3
     10     13     16     17     1  0.0000000  0.0000000  3
      9      7      5     25     1  0.0000000  0.6508444  3
      9      7     10     11     1  0.0000000  0.6276000  3
      9      7     10     12     1  0.0000000  0.6276000  3
      9      7     10     13     1  0.0000000  0.6694400  3
      8      7      5     25     1  0.0000000  0.6508444  3
      8      7     10     11     1  0.0000000  0.6276000  3
      8      7     10     12     1  0.0000000  0.6276000  3
      8      7     10     13     1  0.0000000  0.6694400  3
      7     10     13     14     1  0.0000000  0.6508444  3
      7     10     13     15     1  0.0000000  0.6508444  3
      6      5      7      8     1  0.0000000  0.6508444  3
      6      5      7      9     1  0.0000000  0.6508444  3
      6      5      7     10     1  0.0000000  0.6508444  3
      6      5     25     26     1  0.0000000  0.0000000  2
      6      5     25     27     1  0.0000000  0.0000000  2
      5      7     10     11     1  0.0000000  0.6694400  3
      5      7     10     12     1  0.0000000  0.6694400  3
      4      1      5      6     1  0.0000000  0.6508444  3
      4      1      5      7     1  0.0000000  0.6508444  3
      4      1      5     25     1  0.0000000  0.6508444  3
      3      1      5      6     1  0.0000000  0.6508444  3
      3      1      5      7     1  0.0000000  0.6508444  3
      3      1      5     25     1  0.0000000  0.6508444  3
      2      1      5      6     1  0.0000000  0.6508444  3
      2      1      5      7     1  0.0000000  0.6508444  3
      2      1      5     25     1  0.0000000  0.6508444  3
      1      5      7      8     1  0.0000000  0.6508444  3
      1      5      7      9     1  0.0000000  0.6508444  3
     40     39     41     42     1  0.0000000  8.3680000  1
     40     39     41     42     1  180.0000771  10.4600000  2
     39     41     43     44     1  0.0000000  0.0000000  2
     38     37     39     40     1  0.0000000  3.3472000  1
     38     37     39     40     1  180.0000771  0.3347200  3
     38     37     39     41     1  0.0000000  0.0000000  2
     37     39     41     42     1  180.0000771  10.4600000  2
     36     34     37     38     1  0.0000000  0.6508444  3
     36     34     37     39     1  0.0000000  0.6508444  3
     35     34     37     38     1  0.0000000  0.6508444  3
     35     34     37     39     1  0.0000000  0.6508444  3
     33     31     34     35     1  0.0000000  0.6276000  3
     33     31     34     36     1  0.0000000  0.6276000  3
     33     31     34     37     1  0.0000000  0.6694400  3
     32     31     34     35     1  0.0000000  0.6276000  3
     32     31     34     36     1  0.0000000  0.6276000  3
     32     31     34     37     1  0.0000000  0.6694400  3
     31     34     37     38     1  0.0000000  0.6508444  3
     30     28     27     37     1  0.0000000  0.0000000  2
     30     28     31     32     1  0.0000000  0.6508444  3
     30     28     31     33     1  0.0000000  0.6508444  3
     30     28     31     34     1  0.0000000  0.6508444  3
     29     28     27     37     1  0.0000000  0.0000000  2
     29     28     31     32     1  0.0000000  0.6508444  3
     29     28     31     33     1  0.0000000  0.6508444  3
     29     28     31     34     1  0.0000000  0.6508444  3
     28     27     37     38     1  0.0000000  0.0000000  2
     28     31     34     35     1  0.0000000  0.6694400  3
     28     31     34     36     1  0.0000000  0.6694400  3
     27     28     31     32     1  0.0000000  0.6508444  3
     27     28     31     33     1  0.0000000  0.6508444  3
     27     37     34     35     1  0.0000000  0.6508444  3
     27     37     34     36     1  0.0000000  0.6508444  3
     47     45     43     51     1  0.0000000  0.6508444  3
     47     45     48     49     1  0.0000000  0.0000000  2
     47     45     48     50     1  0.0000000  0.0000000  2
     46     45     43     51     1  0.0000000  0.6508444  3
     46     45     48     49     1  0.0000000  0.0000000  2
     46     45     48     50     1  0.0000000  0.0000000  2
     44     43     45     46     1  0.0000000  0.6508444  3
     44     43     45     47     1  0.0000000  0.6508444  3
     44     43     45     48     1  0.0000000  0.6508444  3
     44     43     51     52     1  0.0000000  0.0000000  2
     44     43     51     53     1  0.0000000  0.0000000  2
     42     41     43     44     1  0.0000000  0.0000000  2
     42     41     43     45     1  0.0000000  0.0000000  2
     42     41     43     51     1  0.0000000  0.0000000  2
     41     43     45     46     1  0.0000000  0.6508444  3
     41     43     45     47     1  0.0000000  0.6508444  3
     18     23     22     24     4  180.0000771  4.1840000  2
     18     20     19     21     4  180.0000771  4.1840000  2
     13     18     16     17     4  180.0000771  4.1840000  2
     39     43     41     42     4  180.0000771  4.6024000  2


[ moleculetype ]
; Name            nrexcl
WAT          3

[ atoms ]
;   nr       type  resnr residue  atom   cgnr    charge       mass  typeB    chargeB      massB
; residue    1 WAT rtp WAT q 0.0
    1         OW      1    WAT      O      1 -0.83400000  16.000000   ; qtot -0.834000
    2         HW      1    WAT     H1      2 0.41700000   1.008000   ; qtot -0.417000
    3         HW      1    WAT     H2      3 0.41700000   1.008000   ; qtot 0.000000

#ifdef FLEXIBLE

[ bonds ]
;    ai     aj funct         c0         c1         c2         c3
      2      1     1   0.09572 462750.400000
      3      1     1   0.09572 462750.400000
      3      2     1   0.15136 462750.400000


#else

[ settles ]
; i     funct   doh     dhh
1     1   0.09572000   0.15136000

#endif

[ exclusions ]
1  2  3
2  1  3
3  1  2

[ system ]
; Name
Generic title

[ molecules ]
; Compound       #mols
system1              1
WAT                876
