Martini 3 water, equilibrated in OpenMM (300 K, 1 bar)
1000
    1W        W    1   2.382   0.497   2.998
    2W        W    2   3.023   4.467   1.319
    3W        W    3   1.803   1.055   4.452
    4W        W    4   1.313   1.799   2.712
    5W        W    5   2.876   4.680   3.418
    6W        W    6   3.535   2.019   3.262
    7W        W    7   3.764   0.734   3.634
    8W        W    8   0.208   2.519   3.141
    9W        W    9   0.526   4.625   3.934
   10W        W   10   4.192   4.759   3.809
   11W        W   11   0.836   4.429   3.537
   12W        W   12   4.696   0.179   1.176
   13W        W   13   2.125   2.802   1.331
   14W        W   14   2.402   3.286   4.559
   15W        W   15   0.264   1.424   1.463
   16W        W   16   3.519   0.272   3.440
   17W        W   17   4.653   2.056   4.492
   18W        W   18   3.544   4.495   1.273
   19W        W   19   3.544   1.817   0.583
   20W        W   20   1.708   3.109   2.294
   21W        W   21   2.998   3.417   0.436
   22W        W   22   1.675   4.492   2.674
   23W        W   23   3.384   0.906   2.266
   24W        W   24   4.889   4.408   0.623
   25W        W   25   4.378   3.090   2.996
   26W        W   26   2.138   3.599   0.976
   27W        W   27   2.150   2.394   4.436
   28W        W   28   1.249   4.928   1.888
   29W        W   29   4.145   1.995   0.017
   30W        W   30   3.462   1.255   1.926
   31W        W   31   1.263   2.694   3.156
   32W        W   32   3.961   2.122   2.753
   33W        W   33   4.427   0.522   1.709
   34W        W   34   0.490   1.639   2.322
   35W        W   35   1.666   3.306   3.334
   36W        W   36   0.908   1.979   0.813
   37W        W   37   2.569   4.481   4.515
   38W        W   38   3.269   4.208   2.906
   39W        W   39   4.746   0.630   3.229
   40W        W   40   2.055   1.511   4.455
   41W        W   41   3.440   0.983   0.979
   42W        W   42   1.790   3.244   0.924
   43W        W   43   2.195   2.504   2.822
   44W        W   44   3.035   1.711   1.500
   45W        W   45   3.453   0.693   1.785
   46W        W   46   3.928   1.394   1.534
   47W        W   47   4.353   1.385   1.198
   48W        W   48   2.238   4.625   0.942
   49W        W   49   2.327   2.209   4.919
   50W        W   50   1.713   1.182   0.518
   51W        W   51   2.740   2.983   3.396
   52W        W   52   3.295   0.115   1.869
   53W        W   53   4.220   1.405   4.108
   54W        W   54   2.599   4.004   3.350
   55W        W   55   0.953   0.431   3.685
   56W        W   56   3.266   3.809   4.448
   57W        W   57   2.341   2.487   0.763
   58W        W   58   1.276   2.289   0.835
   59W        W   59   4.531   3.219   0.258
   60W        W   60   1.654   2.486   1.191
   61W        W   61   0.565   1.223   4.785
   62W        W   62   4.744   3.358   3.838
   63W        W   63   2.472   0.986   1.572
   64W        W   64   1.061   0.394   2.512
   65W        W   65   0.317   0.182   4.865
   66W        W   66   1.871   2.211   2.167
   67W        W   67   1.916   0.669   3.846
   68W        W   68   1.383   2.281   4.281
   69W        W   69   3.652   0.120   0.679
   70W        W   70   3.116   1.112   0.017
   71W        W   71   4.477   0.793   2.716
   72W        W   72   1.162   2.787   2.677
   73W        W   73   2.769   2.099   4.006
   74W        W   74   2.573   1.508   3.172
   75W        W   75   2.505   1.844   3.607
   76W        W   76   2.955   3.572   4.823
   77W        W   77   1.519   4.380   0.819
   78W        W   78   0.387   4.695   3.256
   79W        W   79   4.877   4.385   1.626
   80W        W   80   2.043   3.464   2.927
   81W        W   81   2.527   0.986   3.215
   82W        W   82   2.509   0.014   4.377
   83W        W   83   2.991   1.166   3.452
   84W        W   84   1.043   0.814   4.019
   85W        W   85   2.649   2.141   3.228
   86W        W   86   3.795   4.931   0.188
   87W        W   87   4.803   4.526   3.111
   88W        W   88   2.165   3.946   2.118
   89W        W   89   3.454   2.676   2.252
   90W        W   90   1.641   4.779   3.219
   91W        W   91   4.322   0.506   4.680
   92W        W   92   4.315   3.969   0.240
   93W        W   93   3.006   1.751   3.370
   94W        W   94   0.910   2.707   0.735
   95W        W   95   2.345   1.017   4.048
   96W        W   96   0.984   0.235   1.244
   97W        W   97   2.051   1.968   0.376
   98W        W   98   2.386   4.760   2.119
   99W        W   99   2.143   1.315   3.244
  100W        W  100   2.172   1.356   1.381
  101W        W  101   4.176   2.874   4.454
  102W        W  102   0.958   4.874   4.687
  103W        W  103   1.515   2.979   3.626
  104W        W  104   0.235   2.506   2.399
  105W        W  105   1.660   2.035   1.324
  106W        W  106   2.544   2.671   2.492
  107W        W  107   2.149   1.897   4.048
  108W        W  108   2.932   2.965   2.429
  109W        W  109   3.467   1.745   1.787
  110W        W  110   2.837   0.279   2.709
  111W        W  111   2.907   2.783   1.587
  112W        W  112   1.146   4.052   3.539
  113W        W  113   3.874   1.199   3.272
  114W        W  114   0.294   4.660   1.823
  115W        W  115   1.021   1.332   4.326
  116W        W  116   4.225   3.826   2.416
  117W        W  117   2.913   0.905   4.540
  118W        W  118   1.554   1.257   3.287
  119W        W  119   1.213   4.093   1.254
  120W        W  120   0.795   0.611   3.239
  121W        W  121   4.509   3.907   1.213
  122W        W  122   2.757   1.490   4.709
  123W        W  123   0.300   4.130   3.213
  124W        W  124   4.875   4.597   2.269
  125W        W  125   2.791   0.321   4.627
  126W        W  126   2.333   1.729   4.925
  127W        W  127   0.221   3.492   3.430
  128W        W  128   4.865   1.186   4.641
  129W        W  129   1.835   0.724   0.342
  130W        W  130   1.599   3.995   4.404
  131W        W  131   3.259   4.847   2.384
  132W        W  132   2.036   0.771   3.297
  133W        W  133   3.118   2.168   3.583
  134W        W  134   4.827   3.965   3.523
  135W        W  135   0.999   4.692   1.451
  136W        W  136   0.788   4.656   0.168
  137W        W  137   0.163   0.119   2.303
  138W        W  138   4.311   4.134   1.677
  139W        W  139   4.047   0.620   2.652
  140W        W  140   1.113   2.526   4.698
  141W        W  141   0.944   3.508   4.680
  142W        W  142   1.999   3.019   1.801
  143W        W  143   0.345   2.555   4.943
  144W        W  144   1.628   2.949   1.404
  145W        W  145   4.045   4.798   2.756
  146W        W  146   2.419   0.113   1.708
  147W        W  147   4.886   2.356   3.585
  148W        W  148   2.629   0.332   3.895
  149W        W  149   3.641   3.951   2.652
  150W        W  150   1.842   1.303   1.916
  151W        W  151   4.646   0.668   3.919
  152W        W  152   0.339   4.262   4.310
  153W        W  153   4.135   3.849   2.957
  154W        W  154   0.012   2.136   0.777
  155W        W  155   4.201   2.009   2.110
  156W        W  156   4.306   2.412   3.709
  157W        W  157   4.187   3.557   1.116
  158W        W  158   2.380   2.818   4.633
  159W        W  159   0.245   3.376   0.426
  160W        W  160   3.391   0.889   4.067
  161W        W  161   4.857   0.944   2.453
  162W        W  162   1.578   3.867   3.874
  163W        W  163   4.247   2.500   2.342
  164W        W  164   3.876   1.180   3.841
  165W        W  165   4.423   1.135   3.098
  166W        W  166   2.049   1.637   3.598
  167W        W  167   3.906   4.273   2.334
  168W        W  168   4.314   0.847   3.586
  169W        W  169   1.863   2.776   0.858
  170W        W  170   4.270   1.332   3.561
  171W        W  171   2.136   0.059   3.961
  172W        W  172   4.887   2.786   3.828
  173W        W  173   4.446   2.103   2.547
  174W        W  174   3.057   3.842   0.735
  175W        W  175   4.151   1.137   0.374
  176W        W  176   0.019   0.616   4.905
  177W        W  177   1.258   2.354   3.824
  178W        W  178   3.005   1.723   4.328
  179W        W  179   1.309   2.607   1.660
  180W        W  180   2.437   0.575   4.359
  181W        W  181   1.640   3.990   1.794
  182W        W  182   1.404   1.209   1.461
  183W        W  183   4.150   4.362   3.197
  184W        W  184   0.517   0.677   4.069
  185W        W  185   2.276   1.501   0.873
  186W        W  186   0.998   1.381   3.764
  187W        W  187   1.559   3.040   4.646
  188W        W  188   3.644   1.124   0.155
  189W        W  189   0.321   3.798   0.307
  190W        W  190   1.538   0.587   3.527
  191W        W  191   1.985   2.869   4.912
  192W        W  192   0.531   3.972   1.310
  193W        W  193   2.107   3.309   1.413
  194W        W  194   2.164   0.979   2.826
  195W        W  195   3.479   4.045   0.577
  196W        W  196   3.336   2.230   2.115
  197W        W  197   1.967   2.386   1.640
  198W        W  198   3.169   1.396   0.946
  199W        W  199   2.037   3.151   0.439
  200W        W  200   0.614   2.873   2.770
  201W        W  201   2.485   4.826   0.431
  202W        W  202   4.031   2.391   0.265
  203W        W  203   1.525   2.231   1.804
  204W        W  204   2.279   0.254   4.789
  205W        W  205   2.730   0.283   0.293
  206W        W  206   0.730   2.878   3.230
  207W        W  207   0.504   3.163   1.653
  208W        W  208   4.421   1.816   0.935
  209W        W  209   2.494   3.046   1.519
  210W        W  210   4.407   1.847   2.972
  211W        W  211   1.515   0.462   2.705
  212W        W  212   0.267   0.152   1.256
  213W        W  213   2.769   3.609   2.753
  214W        W  214   2.672   2.690   1.105
  215W        W  215   4.786   0.766   1.957
  216W        W  216   3.623   3.584   4.848
  217W        W  217   3.121   3.599   1.336
  218W        W  218   4.630   3.518   3.255
  219W        W  219   4.914   3.170   1.771
  220W        W  220   0.275   0.204   1.823
  221W        W  221   2.839   2.470   0.617
  222W        W  222   3.460   2.513   0.494
  223W        W  223   0.954   1.962   3.066
  224W        W  224   4.410   1.546   1.857
  225W        W  225   0.851   2.453   2.914
  226W        W  226   2.680   4.859   4.894
  227W        W  227   0.517   2.362   0.490
  228W        W  228   0.920   3.321   1.931
  229W        W  229   3.667   3.747   1.686
  230W        W  230   4.012   4.279   0.910
  231W        W  231   3.255   3.845   0.165
  232W        W  232   3.778   2.744   1.593
  233W        W  233   2.233   3.377   4.123
  234W        W  234   0.516   4.700   2.286
  235W        W  235   3.064   0.568   0.062
  236W        W  236   0.086   3.722   1.451
  237W        W  237   2.091   0.741   4.765
  238W        W  238   3.882   4.830   3.248
  239W        W  239   1.095   0.533   4.735
  240W        W  240   4.913   1.098   3.006
  241W        W  241   3.741   2.146   4.383
  242W        W  242   4.434   2.240   1.291
  243W        W  243   1.992   0.514   2.666
  244W        W  244   4.329   2.359   1.766
  245W        W  245   4.383   2.079   4.056
  246W        W  246   2.318   3.981   2.978
  247W        W  247   0.138   2.822   2.726
  248W        W  248   0.686   1.716   4.846
  249W        W  249   2.814   4.064   1.170
  250W        W  250   1.757   2.292   3.061
  251W        W  251   2.141   2.685   2.198
  252W        W  252   0.755   0.023   3.481
  253W        W  253   4.270   3.370   4.246
  254W        W  254   1.328   1.742   0.753
  255W        W  255   1.176   1.611   4.842
  256W        W  256   1.150   3.546   1.090
  257W        W  257   0.596   2.243   1.497
  258W        W  258   3.848   0.463   1.465
  259W        W  259   0.045   4.100   1.100
  260W        W  260   2.951   0.661   2.309
  261W        W  261   2.098   4.786   4.474
  262W        W  262   3.401   4.384   2.494
  263W        W  263   3.003   4.232   0.414
  264W        W  264   1.153   0.765   2.905
  265W        W  265   3.023   0.420   0.993
  266W        W  266   1.028   1.543   1.693
  267W        W  267   3.299   3.305   2.439
  268W        W  268   0.578   1.154   4.056
  269W        W  269   4.226   3.028   1.692
  270W        W  270   1.680   0.612   2.213
  271W        W  271   1.652   1.741   3.216
  272W        W  272   3.014   2.695   3.754
  273W        W  273   1.186   4.762   0.957
  274W        W  274   3.123   2.156   2.968
  275W        W  275   4.753   0.464   2.407
  276W        W  276   0.208   0.426   4.432
  277W        W  277   3.295   2.039   4.114
  278W        W  278   0.457   4.578   1.313
  279W        W  279   4.079   1.137   2.748
  280W        W  280   3.027   4.699   4.447
  281W        W  281   4.047   2.432   4.685
  282W        W  282   3.451   3.175   1.430
  283W        W  283   4.930   4.124   2.045
  284W        W  284   2.886   0.605   3.164
  285W        W  285   1.879   0.277   0.663
  286W        W  286   0.841   2.278   4.033
  287W        W  287   3.537   2.460   4.087
  288W        W  288   3.806   3.275   0.818
  289W        W  289   4.124   2.479   0.833
  290W        W  290   3.497   2.159   2.556
  291W        W  291   0.701   1.562   3.319
  292W        W  292   2.603   3.017   0.631
  293W        W  293   4.645   2.548   0.943
  294W        W  294   4.780   1.874   3.707
  295W        W  295   0.121   4.872   4.400
  296W        W  296   3.612   2.637   4.550
  297W        W  297   1.599   1.646   0.342
  298W        W  298   2.764   2.543   4.802
  299W        W  299   0.246   1.016   1.788
  300W        W  300   4.725   3.231   4.645
  301W        W  301   1.452   4.269   3.082
  302W        W  302   4.255   2.753   3.291
  303W        W  303   1.004   4.773   3.945
  304W        W  304   2.605   1.246   0.589
  305W        W  305   2.509   2.869   4.044
  306W        W  306   1.340   4.900   2.772
  307W        W  307   3.380   2.447   1.612
  308W        W  308   4.121   3.556   4.887
  309W        W  309   0.288   1.010   0.245
  310W        W  310   1.188   0.929   3.476
  311W        W  311   3.188   0.676   3.595
  312W        W  312   3.515   4.719   4.764
  313W        W  313   4.453   0.941   1.476
  314W        W  314   4.466   3.579   2.740
  315W        W  315   0.418   0.264   3.066
  316W        W  316   3.730   3.092   2.376
  317W        W  317   0.439   1.774   0.774
  318W        W  318   3.832   3.246   3.707
  319W        W  319   1.049   4.649   3.124
  320W        W  320   0.481   3.321   4.448
  321W        W  321   4.190   0.062   4.800
  322W        W  322   4.347   4.208   2.708
  323W        W  323   2.287   3.317   2.122
  324W        W  324   4.514   4.721   4.528
  325W        W  325   4.309   1.821   3.464
  326W        W  326   1.204   3.951   4.792
  327W        W  327   1.344   2.135   4.865
  328W        W  328   3.454   3.496   2.857
  329W        W  329   3.831   2.065   1.698
  330W        W  330   0.753   4.547   4.349
  331W        W  331   0.031   1.447   2.079
  332W        W  332   3.835   1.655   3.492
  333W        W  333   4.808   2.984   0.648
  334W        W  334   3.092   4.170   3.402
  335W        W  335   3.304   3.518   1.925
  336W        W  336   4.064   0.951   1.844
  337W        W  337   1.268   1.686   1.292
  338W        W  338   0.149   3.261   1.230
  339W        W  339   4.625   0.249   2.024
  340W        W  340   3.710   3.966   3.149
  341W        W  341   3.724   1.850   2.229
  342W        W  342   3.997   4.541   4.848
  343W        W  343   2.347   1.384   1.871
  344W        W  344   3.815   3.287   0.280
  345W        W  345   3.596   4.511   0.754
  346W        W  346   3.057   3.838   3.840
  347W        W  347   2.428   0.578   2.436
  348W        W  348   0.302   3.129   0.815
  349W        W  349   1.215   4.458   4.940
  350W        W  350   2.774   1.710   0.731
  351W        W  351   2.786   4.677   3.997
  352W        W  352   3.610   0.806   4.744
  353W        W  353   0.513   0.208   3.920
  354W        W  354   0.004   4.404   4.773
  355W        W  355   4.490   0.268   0.180
  356W        W  356   1.973   1.141   0.985
  357W        W  357   3.956   3.114   1.324
  358W        W  358   2.367   0.380   3.467
  359W        W  359   0.671   4.873   0.991
  360W        W  360   4.938   2.255   4.095
  361W        W  361   1.659   4.185   4.867
  362W        W  362   1.027   3.725   3.183
  363W        W  363   2.984   0.961   1.866
  364W        W  364   3.009   3.677   3.155
  365W        W  365   1.150   3.290   4.118
  366W        W  366   2.888   4.274   1.828
  367W        W  367   4.667   4.874   0.552
  368W        W  368   1.476   0.665   4.300
  369W        W  369   2.558   1.159   0.050
  370W        W  370   3.385   0.397   1.330
  371W        W  371   0.325   3.286   2.656
  372W        W  372   3.948   1.391   2.037
  373W        W  373   4.164   0.290   3.028
  374W        W  374   0.919   0.702   0.978
  375W        W  375   1.285   1.867   2.172
  376W        W  376   2.436   1.952   4.503
  377W        W  377   2.903   4.735   2.006
  378W        W  378   4.598   3.325   2.185
  379W        W  379   3.569   3.672   3.529
  380W        W  380   2.028   4.373   1.693
  381W        W  381   3.841   1.638   2.930
  382W        W  382   0.126   4.740   2.748
  383W        W  383   3.648   4.717   2.117
  384W        W  384   4.524   4.372   3.601
  385W        W  385   1.432   2.686   0.556
  386W        W  386   4.039   1.496   0.788
  387W        W  387   0.531   0.564   1.300
  388W        W  388   0.967   3.693   3.937
  389W        W  389   3.997   1.080   1.030
  390W        W  390   2.451   1.087   4.542
  391W        W  391   0.675   1.660   3.978
  392W        W  392   2.967   0.927   0.922
  393W        W  393   2.866   2.229   1.490
  394W        W  394   0.839   1.125   2.582
  395W        W  395   4.288   0.019   1.419
  396W        W  396   2.344   0.132   2.629
  397W        W  397   4.932   2.356   1.550
  398W        W  398   3.557   1.290   0.631
  399W        W  399   0.316   3.160   3.119
  400W        W  400   4.014   0.114   4.335
  401W        W  401   3.263   0.896   0.430
  402W        W  402   1.152   4.481   0.528
  403W        W  403   1.958   4.336   3.056
  404W        W  404   4.582   4.716   0.049
  405W        W  405   2.719   3.427   0.893
  406W        W  406   3.511   4.848   2.854
  407W        W  407   2.249   1.793   2.191
  408W        W  408   2.383   3.615   1.750
  409W        W  409   0.572   3.782   2.618
  410W        W  410   1.589   3.875   0.876
  411W        W  411   4.119   0.527   4.021
  412W        W  412   2.201   4.018   3.731
  413W        W  413   0.780   0.227   0.079
  414W        W  414   1.999   4.406   2.216
  415W        W  415   4.917   1.861   2.639
  416W        W  416   2.728   4.255   3.756
  417W        W  417   2.365   3.502   0.433
  418W        W  418   1.631   4.042   2.279
  419W        W  419   1.146   1.292   0.342
  420W        W  420   0.223   3.090   4.097
  421W        W  421   4.738   2.859   1.438
  422W        W  422   0.805   2.793   1.612
  423W        W  423   2.025   0.351   4.376
  424W        W  424   3.799   3.175   4.663
  425W        W  425   3.663   2.052   0.009
  426W        W  426   2.540   2.207   2.562
  427W        W  427   2.094   1.498   0.364
  428W        W  428   1.119   3.330   2.396
  429W        W  429   3.788   0.232   2.452
  430W        W  430   0.795   0.892   4.464
  431W        W  431   1.648   3.624   4.866
  432W        W  432   2.182   3.839   4.680
  433W        W  433   2.985   2.562   2.077
  434W        W  434   2.296   4.415   3.432
  435W        W  435   4.533   1.185   0.716
  436W        W  436   4.228   3.508   0.525
  437W        W  437   1.387   3.974   0.338
  438W        W  438   3.625   2.212   0.849
  439W        W  439   2.477   1.320   3.680
  440W        W  440   4.671   3.009   4.231
  441W        W  441   4.508   2.327   0.035
  442W        W  442   4.666   1.137   4.102
  443W        W  443   2.590   3.182   0.055
  444W        W  444   3.767   4.865   1.589
  445W        W  445   1.338   4.562   3.598
  446W        W  446   3.695   0.525   4.299
  447W        W  447   0.805   4.197   2.963
  448W        W  448   4.180   1.631   2.473
  449W        W  449   1.320   2.291   2.785
  450W        W  450   2.483   1.049   1.040
  451W        W  451   2.561   0.686   4.876
  452W        W  452   4.455   3.733   1.938
  453W        W  453   1.174   4.424   2.662
  454W        W  454   4.832   3.233   2.889
  455W        W  455   3.779   4.389   2.870
  456W        W  456   4.140   0.072   1.884
  457W        W  457   2.619   1.060   2.257
  458W        W  458   0.031   0.349   0.406
  459W        W  459   2.302   4.529   4.032
  460W        W  460   4.578   0.467   0.680
  461W        W  461   2.496   2.265   2.096
  462W        W  462   0.679   0.642   2.745
  463W        W  463   2.573   2.068   0.430
  464W        W  464   1.174   2.680   1.198
  465W        W  465   4.497   0.308   4.257
  466W        W  466   1.564   3.086   0.242
  467W        W  467   2.740   0.052   0.886
  468W        W  468   0.699   0.281   4.463
  469W        W  469   0.814   4.603   1.896
  470W        W  470   3.743   4.214   1.641
  471W        W  471   1.855   0.215   3.604
  472W        W  472   2.044   4.287   4.495
  473W        W  473   1.047   3.943   0.797
  474W        W  474   2.835   3.013   4.577
  475W        W  475   1.422   4.397   1.674
  476W        W  476   3.788   1.211   4.387
  477W        W  477   4.732   1.722   1.335
  478W        W  478   2.319   3.707   2.552
  479W        W  479   1.028   0.730   1.500
  480W        W  480   0.540   3.661   3.086
  481W        W  481   4.641   3.538   0.840
  482W        W  482   3.997   3.712   3.826
  483W        W  483   1.309   1.864   4.024
  484W        W  484   0.862   0.951   0.092
  485W        W  485   3.681   4.398   3.449
  486W        W  486   2.581   1.711   1.266
  487W        W  487   4.031   3.404   2.724
  488W        W  488   3.563   3.934   4.075
  489W        W  489   1.825   4.267   4.046
  490W        W  490   1.801   0.360   3.112
  491W        W  491   3.892   0.964   2.299
  492W        W  492   1.740   4.842   0.965
  493W        W  493   4.085   4.485   1.364
  494W        W  494   2.010   4.109   2.607
  495W        W  495   1.693   2.597   4.489
  496W        W  496   3.181   0.325   0.551
  497W        W  497   3.122   4.370   0.867
  498W        W  498   2.008   1.751   1.728
  499W        W  499   1.468   0.174   2.337
  500W        W  500   0.882   0.162   2.987
  501W        W  501   4.578   2.536   4.277
  502W        W  502   0.257   3.662   0.919
  503W        W  503   3.080   2.677   3.197
  504W        W  504   2.252   2.736   3.460
  505W        W  505   1.879   2.243   0.831
  506W        W  506   1.063   2.328   0.381
  507W        W  507   3.028   2.568   2.688
  508W        W  508   1.908   3.416   4.517
  509W        W  509   2.678   0.621   1.270
  510W        W  510   1.511   0.699   1.271
  511W        W  511   0.478   3.975   2.151
  512W        W  512   1.981   3.462   3.703
  513W        W  513   0.765   4.240   4.713
  514W        W  514   0.673   0.972   0.631
  515W        W  515   3.879   1.561   0.264
  516W        W  516   1.481   3.181   1.858
  517W        W  517   2.032   1.244   4.877
  518W        W  518   4.455   4.496   0.899
  519W        W  519   4.067   4.555   4.306
  520W        W  520   4.302   0.165   2.429
  521W        W  521   2.920   3.154   2.953
  522W        W  522   2.745   1.630   0.240
  523W        W  523   3.307   3.300   4.517
  524W        W  524   2.187   0.494   1.556
  525W        W  525   0.933   4.131   1.700
  526W        W  526   2.904   3.783   1.812
  527W        W  527   1.624   4.444   0.301
  528W        W  528   4.143   2.903   0.094
  529W        W  529   1.888   2.771   3.126
  530W        W  530   1.522   3.784   3.356
  531W        W  531   4.697   2.829   2.458
  532W        W  532   3.439   3.035   0.524
  533W        W  533   2.362   3.200   3.604
  534W        W  534   0.316   0.692   3.319
  535W        W  535   4.539   4.638   1.901
  536W        W  536   3.937   2.345   3.320
  537W        W  537   3.735   1.597   1.123
  538W        W  538   1.695   0.769   0.807
  539W        W  539   2.090   3.026   2.645
  540W        W  540   1.726   1.511   1.287
  541W        W  541   3.455   3.403   4.010
  542W        W  542   2.850   4.050   4.736
  543W        W  543   2.551   0.535   0.775
  544W        W  544   4.008   3.968   1.333
  545W        W  545   2.914   0.726   4.058
  546W        W  546   0.012   2.044   3.170
  547W        W  547   3.206   3.803   2.478
  548W        W  548   0.380   1.780   3.609
  549W        W  549   3.272   3.371   0.948
  550W        W  550   0.113   3.000   0.118
  551W        W  551   3.460   4.918   4.317
  552W        W  552   3.446   4.162   4.803
  553W        W  553   1.510   2.898   4.108
  554W        W  554   3.204   0.978   1.391
  555W        W  555   0.575   2.089   4.449
  556W        W  556   3.274   2.953   1.855
  557W        W  557   2.314   3.069   3.079
  558W        W  558   3.807   3.623   4.359
  559W        W  559   4.033   0.335   3.473
  560W        W  560   2.666   0.042   3.095
  561W        W  561   3.919   2.849   2.034
  562W        W  562   1.297   3.440   3.669
  563W        W  563   3.485   3.541   0.532
  564W        W  564   0.759   3.332   3.465
  565W        W  565   0.114   2.675   1.945
  566W        W  566   1.938   4.899   2.269
  567W        W  567   3.830   4.175   4.463
  568W        W  568   3.127   2.943   4.185
  569W        W  569   1.813   2.399   4.038
  570W        W  570   2.438   1.974   1.663
  571W        W  571   4.425   2.695   0.477
  572W        W  572   1.357   4.504   2.165
  573W        W  573   4.224   2.689   1.295
  574W        W  574   4.728   1.108   3.488
  575W        W  575   0.839   4.135   0.420
  576W        W  576   4.176   1.161   4.841
  577W        W  577   4.510   2.245   3.207
  578W        W  578   3.104   1.985   0.410
  579W        W  579   4.721   0.732   4.489
  580W        W  580   3.391   4.396   4.324
  581W        W  581   1.360   1.256   2.718
  582W        W  582   2.666   2.481   4.293
  583W        W  583   2.347   4.260   1.288
  584W        W  584   2.709   1.719   2.337
  585W        W  585   0.199   2.626   0.838
  586W        W  586   0.665   2.928   1.170
  587W        W  587   3.104   1.245   2.951
  588W        W  588   1.826   1.723   4.872
  589W        W  589   0.784   2.517   2.440
  590W        W  590   0.498   4.038   0.769
  591W        W  591   4.843   0.200   2.945
  592W        W  592   1.875   3.610   2.433
  593W        W  593   0.827   2.675   0.128
  594W        W  594   2.525   3.880   0.755
  595W        W  595   4.277   3.318   3.542
  596W        W  596   0.420   2.043   2.647
  597W        W  597   1.039   1.979   4.455
  598W        W  598   2.309   1.766   2.652
  599W        W  599   2.308   2.303   1.277
  600W        W  600   0.083   0.179   3.390
  601W        W  601   3.911   1.750   3.972
  602W        W  602   0.334   1.965   0.250
  603W        W  603   1.738   3.846   2.896
  604W        W  604   2.242   0.443   0.309
  605W        W  605   0.678   0.235   2.100
  606W        W  606   2.883   3.209   3.819
  607W        W  607   1.027   2.899   3.671
  608W        W  608   3.150   0.776   2.728
  609W        W  609   2.267   0.186   1.072
  610W        W  610   4.441   4.319   4.084
  611W        W  611   4.050   4.488   1.864
  612W        W  612   4.798   4.128   0.209
  613W        W  613   1.658   2.521   3.512
  614W        W  614   2.954   2.881   0.262
  615W        W  615   2.096   4.475   0.022
  616W        W  616   0.622   3.443   1.192
  617W        W  617   3.064   2.888   0.808
  618W        W  618   3.674   1.003   1.477
  619W        W  619   2.947   4.167   4.244
  620W        W  620   1.754   1.572   2.355
  621W        W  621   3.463   1.474   3.201
  622W        W  622   4.914   2.542   0.339
  623W        W  623   0.364   1.501   4.423
  624W        W  624   3.427   1.386   1.426
  625W        W  625   4.143   1.952   4.470
  626W        W  626   0.373   4.292   3.649
  627W        W  627   0.502   0.076   0.434
  628W        W  628   3.586   2.813   1.103
  629W        W  629   2.211   4.317   0.514
  630W        W  630   4.015   3.935   1.981
  631W        W  631   3.819   0.165   3.852
  632W        W  632   2.496   4.058   1.688
  633W        W  633   0.301   1.271   3.359
  634W        W  634   1.362   3.583   4.448
  635W        W  635   3.020   4.502   4.907
  636W        W  636   4.305   3.958   3.463
  637W        W  637   4.021   2.436   4.104
  638W        W  638   4.309   3.889   4.334
  639W        W  639   4.510   3.796   3.879
  640W        W  640   1.448   3.567   2.200
  641W        W  641   1.105   3.921   2.619
  642W        W  642   1.565   4.675   4.116
  643W        W  643   1.524   1.062   3.960
  644W        W  644   4.046   4.743   0.618
  645W        W  645   1.581   3.500   1.333
  646W        W  646   3.094   4.789   0.500
  647W        W  647   0.075   4.773   0.234
  648W        W  648   1.428   0.855   1.873
  649W        W  649   2.752   0.236   2.193
  650W        W  650   0.806   1.597   2.783
  651W        W  651   1.129   0.465   1.948
  652W        W  652   1.149   0.275   4.136
  653W        W  653   0.922   1.911   3.654
  654W        W  654   1.970   4.776   0.524
  655W        W  655   2.960   0.455   1.680
  656W        W  656   0.705   1.725   1.345
  657W        W  657   1.609   0.648   4.797
  658W        W  658   0.416   2.593   4.184
  659W        W  659   1.087   3.095   0.351
  660W        W  660   1.346   2.090   3.380
  661W        W  661   4.593   0.795   0.304
  662W        W  662   1.973   3.798   4.232
  663W        W  663   2.046   3.964   0.215
  664W        W  664   0.552   2.971   2.214
  665W        W  665   2.974   0.189   4.212
  666W        W  666   1.940   0.952   1.521
  667W        W  667   3.218   0.037   0.118
  668W        W  668   1.769   0.254   1.315
  669W        W  669   4.111   3.507   1.616
  670W        W  670   3.550   4.041   1.051
  671W        W  671   3.270   4.053   1.518
  672W        W  672   1.173   1.585   3.283
  673W        W  673   1.155   3.654   1.659
  674W        W  674   4.816   4.129   2.608
  675W        W  675   1.073   2.726   4.208
  676W        W  676   1.998   3.824   1.496
  677W        W  677   1.569   2.160   0.436
  678W        W  678   0.342   4.277   2.618
  679W        W  679   3.786   2.175   3.725
  680W        W  680   4.647   0.820   1.024
  681W        W  681   0.480   1.328   0.992
  682W        W  682   3.198   1.919   0.896
  683W        W  683   4.464   4.038   0.712
  684W        W  684   1.865   2.601   0.387
  685W        W  685   4.771   1.869   0.102
  686W        W  686   3.260   1.709   2.783
  687W        W  687   1.058   2.837   2.129
  688W        W  688   0.068   0.881   0.671
  689W        W  689   2.376   2.599   1.716
  690W        W  690   3.041   1.261   2.435
  691W        W  691   1.403   0.324   0.907
  692W        W  692   1.822   0.099   0.131
  693W        W  693   0.163   4.930   0.787
  694W        W  694   1.774   4.228   3.478
  695W        W  695   2.297   2.422   3.971
  696W        W  696   1.558   1.313   0.022
  697W        W  697   1.845   3.594   0.500
  698W        W  698   1.177   3.180   3.160
  699W        W  699   0.836   4.280   2.282
  700W        W  700   3.377   1.774   3.690
  701W        W  701   3.856   2.333   1.295
  702W        W  702   4.338   3.123   0.807
  703W        W  703   0.036   3.653   1.942
  704W        W  704   0.088   3.115   2.256
  705W        W  705   3.564   0.462   0.248
  706W        W  706   1.629   3.105   2.861
  707W        W  707   4.772   1.522   3.198
  708W        W  708   0.151   1.926   1.728
  709W        W  709   0.255   1.975   1.182
  710W        W  710   4.094   3.371   2.087
  711W        W  711   2.922   2.042   1.947
  712W        W  712   4.551   0.164   3.469
  713W        W  713   3.378   3.033   3.715
  714W        W  714   3.483   1.508   4.081
  715W        W  715   2.892   3.298   1.712
  716W        W  716   3.655   2.703   0.132
  717W        W  717   2.556   3.523   3.209
  718W        W  718   0.424   3.468   2.201
  719W        W  719   3.807   0.015   1.129
  720W        W  720   0.808   3.330   2.867
  721W        W  721   0.173   3.854   3.921
  722W        W  722   0.189   3.882   4.660
  723W        W  723   3.828   0.564   1.004
  724W        W  724   0.934   1.169   3.080
  725W        W  725   1.476   1.326   0.932
  726W        W  726   1.773   0.989   2.489
  727W        W  727   0.521   2.918   0.430
  728W        W  728   3.287   1.329   4.506
  729W        W  729   3.806   2.333   2.117
  730W        W  730   2.597   4.719   1.242
  731W        W  731   3.733   3.239   1.811
  732W        W  732   2.716   2.177   1.020
  733W        W  733   2.938   3.424   4.280
  734W        W  734   1.090   2.174   1.378
  735W        W  735   0.683   0.925   3.629
  736W        W  736   3.733   3.597   1.191
  737W        W  737   2.606   4.464   3.029
  738W        W  738   4.586   1.392   2.727
  739W        W  739   4.308   0.645   2.200
  740W        W  740   3.204   4.336   3.860
  741W        W  741   1.302   3.059   0.851
  742W        W  742   1.993   4.090   0.903
  743W        W  743   3.273   1.708   2.259
  744W        W  744   1.778   4.834   1.832
  745W        W  745   2.932   0.220   3.509
  746W        W  746   0.137   0.807   3.740
  747W        W  747   0.114   1.377   2.560
  748W        W  748   1.750   1.549   4.041
  749W        W  749   1.043   3.991   4.344
  750W        W  750   2.993   1.451   1.972
  751W        W  751   1.069   3.021   4.593
  752W        W  752   3.812   0.508   2.012
  753W        W  753   2.158   4.873   3.186
  754W        W  754   0.516   0.581   0.303
  755W        W  755   4.218   0.775   0.695
  756W        W  756   4.929   4.687   1.192
  757W        W  757   0.641   1.491   0.318
  758W        W  758   0.339   2.695   1.455
  759W        W  759   0.633   3.787   3.594
  760W        W  760   4.040   2.015   0.588
  761W        W  761   2.108   3.465   0.013
  762W        W  762   1.380   0.073   3.654
  763W        W  763   4.888   1.702   0.540
  764W        W  764   4.215   0.946   4.392
  765W        W  765   1.652   3.414   4.058
  766W        W  766   0.143   2.035   2.192
  767W        W  767   2.552   0.607   1.880
  768W        W  768   0.192   3.473   4.886
  769W        W  769   0.124   1.033   1.251
  770W        W  770   2.275   1.965   0.794
  771W        W  771   4.783   1.593   4.374
  772W        W  772   4.060   0.326   0.500
  773W        W  773   4.856   2.336   2.766
  774W        W  774   0.445   1.145   2.290
  775W        W  775   3.834   2.695   2.657
  776W        W  776   2.244   0.911   0.565
  777W        W  777   4.313   2.523   2.843
  778W        W  778   1.711   2.001   3.695
  779W        W  779   2.464   4.841   3.618
  780W        W  780   2.622   1.401   2.665
  781W        W  781   3.205   2.335   0.079
  782W        W  782   1.289   2.338   2.267
  783W        W  783   3.253   2.882   4.771
  784W        W  784   0.037   3.494   4.264
  785W        W  785   0.787   0.724   2.271
  786W        W  786   3.755   0.829   0.550
  787W        W  787   0.594   2.378   0.982
  788W        W  788   1.872   4.647   3.672
  789W        W  789   1.652   0.264   4.049
  790W        W  790   3.305   2.012   4.623
  791W        W  791   0.718   3.002   4.048
  792W        W  792   2.858   3.459   2.190
  793W        W  793   0.162   0.618   2.763
  794W        W  794   4.902   2.442   4.660
  795W        W  795   4.150   1.831   1.334
  796W        W  796   1.975   2.825   3.852
  797W        W  797   0.595   3.820   4.333
  798W        W  798   4.582   2.813   1.951
  799W        W  799   2.847   1.266   1.397
  800W        W  800   0.080   1.348   3.844
  801W        W  801   1.338   0.875   0.182
  802W        W  802   4.211   2.989   2.377
  803W        W  803   0.483   0.708   4.759
  804W        W  804   1.492   4.801   1.407
  805W        W  805   0.255   1.003   4.387
  806W        W  806   0.769   3.546   0.482
  807W        W  807   2.621   2.958   2.004
  808W        W  808   0.529   2.500   1.947
  809W        W  809   4.776   1.269   1.671
  810W        W  810   3.136   1.432   0.430
  811W        W  811   4.807   3.096   3.386
  812W        W  812   3.283   1.584   4.926
  813W        W  813   4.711   2.323   2.188
  814W        W  814   4.055   0.718   0.174
  815W        W  815   0.187   2.869   4.535
  816W        W  816   0.816   3.204   0.812
  817W        W  817   4.929   1.451   0.976
  818W        W  818   1.430   0.206   4.545
  819W        W  819   2.296   3.152   0.978
  820W        W  820   1.886   1.170   3.687
  821W        W  821   3.144   2.429   4.441
  822W        W  822   2.107   1.886   3.138
  823W        W  823   3.242   4.834   3.818
  824W        W  824   1.338   3.498   2.801
  825W        W  825   0.649   1.061   1.516
  826W        W  826   4.434   4.216   2.197
  827W        W  827   1.296   4.246   4.032
  828W        W  828   0.550   0.152   2.580
  829W        W  829   1.043   1.808   0.351
  830W        W  830   0.576   3.115   4.877
  831W        W  831   2.502   4.253   2.506
  832W        W  832   2.435   4.049   4.236
  833W        W  833   2.657   0.890   2.749
  834W        W  834   3.987   4.215   3.831
  835W        W  835   0.935   3.786   2.138
  836W        W  836   3.443   0.824   3.212
  837W        W  837   4.014   0.750   3.129
  838W        W  838   2.545   1.596   4.192
  839W        W  839   2.655   4.444   0.733
  840W        W  840   4.267   2.955   3.955
  841W        W  841   4.635   4.018   3.068
  842W        W  842   2.644   0.840   3.679
  843W        W  843   0.085   4.695   3.697
  844W        W  844   4.604   4.818   4.053
  845W        W  845   3.737   3.044   4.152
  846W        W  846   2.512   3.217   2.601
  847W        W  847   0.711   3.804   0.028
  848W        W  848   1.395   1.327   2.157
  849W        W  849   0.435   4.213   1.708
  850W        W  850   2.912   3.147   1.217
  851W        W  851   1.497   1.463   4.468
  852W        W  852   1.468   0.447   0.419
  853W        W  853   1.295   1.043   4.616
  854W        W  854   2.142   0.684   1.061
  855W        W  855   2.127   0.354   2.021
  856W        W  856   1.640   0.448   1.753
  857W        W  857   3.937   2.839   0.563
  858W        W  858   1.471   4.906   0.539
  859W        W  859   3.932   3.799   0.762
  860W        W  860   4.277   0.128   0.926
  861W        W  861   2.225   1.287   2.370
  862W        W  862   4.410   4.772   3.064
  863W        W  863   0.975   1.072   1.979
  864W        W  864   1.751   2.621   2.612
  865W        W  865   0.562   1.389   1.890
  866W        W  866   2.128   1.850   1.234
  867W        W  867   0.015   4.355   3.997
  868W        W  868   2.651   2.423   3.637
  869W        W  869   3.533   2.505   3.023
  870W        W  870   2.118   0.851   2.006
  871W        W  871   0.185   1.503   4.935
  872W        W  872   1.510   2.615   0.048
  873W        W  873   3.930   4.314   0.358
  874W        W  874   4.841   0.030   1.601
  875W        W  875   0.437   2.865   3.669
  876W        W  876   1.342   0.344   3.151
  877W        W  877   3.015   2.062   2.487
  878W        W  878   0.521   4.538   0.641
  879W        W  879   3.034   4.636   2.839
  880W        W  880   3.321   3.273   0.100
  881W        W  881   0.325   1.581   2.949
  882W        W  882   1.815   4.363   1.239
  883W        W  883   4.530   2.159   0.537
  884W        W  884   0.820   2.412   3.510
  885W        W  885   4.528   4.678   2.619
  886W        W  886   0.085   0.492   0.964
  887W        W  887   3.833   3.796   0.292
  888W        W  888   1.820   1.417   2.818
  889W        W  889   3.367   0.342   3.937
  890W        W  890   2.972   1.542   3.870
  891W        W  891   2.818   1.200   4.183
  892W        W  892   4.887   3.688   2.457
  893W        W  893   4.415   4.453   0.416
  894W        W  894   1.817   2.006   2.705
  895W        W  895   2.837   2.001   4.856
  896W        W  896   0.682   2.230   0.007
  897W        W  897   3.948   3.477   3.241
  898W        W  898   0.443   1.066   2.939
  899W        W  899   1.311   0.056   0.081
  900W        W  900   2.615   2.652   2.997
  901W        W  901   2.690   3.893   2.293
  902W        W  902   3.422   2.994   2.833
  903W        W  903   4.611   1.976   1.774
  904W        W  904   0.070   3.686   2.927
  905W        W  905   3.806   2.943   3.258
  906W        W  906   2.032   2.924   4.351
  907W        W  907   3.729   4.627   3.894
  908W        W  908   1.080   3.169   1.426
  909W        W  909   3.174   0.212   3.073
  910W        W  910   0.699   4.659   2.739
  911W        W  911   4.807   3.997   4.306
  912W        W  912   0.625   1.896   1.907
  913W        W  913   0.507   2.122   3.278
  914W        W  914   3.685   3.663   2.240
  915W        W  915   3.857   2.759   3.769
  916W        W  916   0.380   2.227   3.806
  917W        W  917   2.761   0.814   0.365
  918W        W  918   2.723   1.871   2.835
  919W        W  919   2.806   4.046   2.900
  920W        W  920   4.269   0.521   1.176
  921W        W  921   0.978   2.261   1.882
  922W        W  922   3.735   0.244   4.741
  923W        W  923   1.532   1.632   1.720
  924W        W  924   0.799   4.201   3.991
  925W        W  925   1.827   2.259   4.884
  926W        W  926   4.787   3.697   0.371
  927W        W  927   4.368   1.626   0.450
  928W        W  928   2.032   3.788   3.320
  929W        W  929   4.569   3.720   4.782
  930W        W  930   4.376   1.118   2.232
  931W        W  931   2.533   4.556   1.686
  932W        W  932   3.255   0.380   4.578
  933W        W  933   1.305   3.582   0.611
  934W        W  934   2.579   3.575   1.325
  935W        W  935   0.668   2.718   4.590
  936W        W  936   0.846   4.367   1.059
  937W        W  937   4.914   0.527   1.464
  938W        W  938   0.976   4.802   2.386
  939W        W  939   4.722   2.703   3.113
  940W        W  940   3.589   1.350   2.485
  941W        W  941   1.598   0.844   3.034
  942W        W  942   0.983   0.053   0.501
  943W        W  943   3.225   2.496   1.000
  944W        W  944   1.837   3.505   1.895
  945W        W  945   1.031   1.226   1.149
  946W        W  946   1.680   4.689   4.689
  947W        W  947   0.271   0.647   2.203
  948W        W  948   1.242   0.921   0.678
  949W        W  949   1.631   2.685   2.030
  950W        W  950   4.475   4.254   4.627
  951W        W  951   3.472   4.491   0.272
  952W        W  952   4.621   1.272   0.136
  953W        W  953   2.096   4.797   1.404
  954W        W  954   2.185   4.632   2.657
  955W        W  955   0.551   0.428   0.792
  956W        W  956   3.426   1.210   3.604
  957W        W  957   3.437   4.070   2.090
  958W        W  958   0.930   1.556   2.187
  959W        W  959   1.266   0.854   2.433
  960W        W  960   1.772   1.967   4.424
  961W        W  961   1.814   0.069   2.751
  962W        W  962   3.328   4.577   1.743
  963W        W  963   2.942   4.338   2.325
  964W        W  964   3.468   2.540   3.554
  965W        W  965   0.889   2.064   2.557
  966W        W  966   3.279   4.901   1.014
  967W        W  967   1.186   3.548   0.171
  968W        W  968   4.770   0.180   4.705
  969W        W  969   0.176   1.911   4.644
  970W        W  970   3.614   0.881   2.728
  971W        W  971   0.522   3.468   3.915
  972W        W  972   2.378   2.665   0.166
  973W        W  973   2.590   3.612   3.865
  974W        W  974   2.721   4.782   2.482
  975W        W  975   0.670   0.138   1.569
  976W        W  976   3.447   1.993   1.334
  977W        W  977   2.985   4.899   1.493
  978W        W  978   1.467   1.596   3.659
  979W        W  979   1.791   1.731   0.863
  980W        W  980   4.655   2.805   4.912
  981W        W  981   2.098   2.227   3.518
  982W        W  982   0.895   1.501   0.741
  983W        W  983   0.957   0.580   0.493
  984W        W  984   4.441   1.604   4.749
  985W        W  985   2.581   4.392   0.141
  986W        W  986   4.918   0.235   3.909
  987W        W  987   1.315   4.417   4.509
  988W        W  988   3.655   0.400   2.942
  989W        W  989   0.209   1.813   4.089
  990W        W  990   4.620   3.356   1.391
  991W        W  991   0.641   3.683   1.719
  992W        W  992   3.710   1.648   4.642
  993W        W  993   0.410   4.279   0.115
  994W        W  994   0.614   0.607   1.803
  995W        W  995   2.659   3.839   0.261
  996W        W  996   3.350   4.753   3.340
  997W        W  997   3.326   0.386   2.327
  998W        W  998   3.402   3.266   3.299
  999W        W  999   0.429   4.663   4.681
 1000W        W 1000   4.623   1.755   2.237
4.94538 4.94538 4.94538
